{"atomic property": ["atomic number", "relative atomic mass", "number of natural s isotope", "outer shell electron configuration", "atomic radius ( pm )", "ionization energy (kj / mol)", "static polarizability (å 3 )", "average valence electron energy (avee)"], "helium": ["2", "4.002602 (2)", "2", "1s 2", "130", "2372", "0.204", "4.16"], "neon": ["10", "20.1797 (6)", "3", "2s 2 2p 6", "160", "2080", "0.392", "4.79"], "argon": ["18", "39.948 (1)", "3", "3s 2 3p 6", "192", "1520", "1.63", "3.24"], "krypton": ["36", "83.80 (1)", "6", "4s 2 4p 6", "198", "1351", "2.465", "2.97"], "xenon": ["54", "131.29 (2)", "9", "5s 2 5p 6", "218", "1170", "4.01", "2.58"], "radon": ["86", "(222)", "(1)", "6s 2 6p 6", "-", "1037", "-", "-"]}